    1C
    2C
 -1    1 0.86430E-07-0.16898E+02 0.55880E+02
 -1    2 0.86430E-07-0.15777E+02 0.56045E+02
 -1    3-0.30000E+01-0.15777E+02 0.56045E+02
 -1    4-0.30000E+01-0.16898E+02 0.55880E+02
 -1    5 0.86430E-07-0.16054E+02 0.57458E+02
 -1    6 0.86430E-07-0.15347E+02 0.57025E+02
 -1    7-0.30000E+01-0.15347E+02 0.57025E+02
 -1    8-0.30000E+01-0.16054E+02 0.57458E+02
 -1    9 0.86430E-07-0.16338E+02 0.55962E+02
 -1   10-0.15000E+01-0.15777E+02 0.56045E+02
 -1   11-0.30000E+01-0.16338E+02 0.55962E+02
 -1   12-0.15000E+01-0.16898E+02 0.55880E+02
 -1   13 0.86430E-07-0.16476E+02 0.56669E+02
 -1   14 0.86430E-07-0.15581E+02 0.56536E+02
 -1   15-0.30000E+01-0.15581E+02 0.56536E+02
 -1   16-0.30000E+01-0.16476E+02 0.56669E+02
 -1   17 0.86430E-07-0.15701E+02 0.57242E+02
 -1   18-0.15000E+01-0.15347E+02 0.57025E+02
 -1   19-0.30000E+01-0.15701E+02 0.57242E+02
 -1   20-0.15000E+01-0.16054E+02 0.57458E+02
 -1   21 0.86430E-07-0.14657E+02 0.56210E+02
 -1   22-0.30000E+01-0.14657E+02 0.56210E+02
 -1   23 0.86430E-07-0.14640E+02 0.56592E+02
 -1   24-0.30000E+01-0.14640E+02 0.56592E+02
 -1   25 0.86430E-07-0.15217E+02 0.56127E+02
 -1   26-0.15000E+01-0.14657E+02 0.56210E+02
 -1   27-0.30000E+01-0.15217E+02 0.56127E+02
 -1   28 0.86430E-07-0.14687E+02 0.56403E+02
 -1   29-0.30000E+01-0.14687E+02 0.56403E+02
 -1   30 0.86430E-07-0.14994E+02 0.56809E+02
 -1   31-0.15000E+01-0.14640E+02 0.56592E+02
 -1   32-0.30000E+01-0.14994E+02 0.56809E+02
 -1   33 0.86430E-07-0.15210E+02 0.59036E+02
 -1   34 0.86430E-07-0.14784E+02 0.57944E+02
 -1   35-0.30000E+01-0.14784E+02 0.57944E+02
 -1   36-0.30000E+01-0.15210E+02 0.59036E+02
 -1   37 0.86430E-07-0.15632E+02 0.58247E+02
 -1   38 0.86430E-07-0.15079E+02 0.57498E+02
 -1   39-0.30000E+01-0.15079E+02 0.57498E+02
 -1   40-0.30000E+01-0.15632E+02 0.58247E+02
 -1   41 0.86430E-07-0.14997E+02 0.58490E+02
 -1   42-0.15000E+01-0.14784E+02 0.57944E+02
 -1   43-0.30000E+01-0.14997E+02 0.58490E+02
 -1   44-0.15000E+01-0.15210E+02 0.59036E+02
 -1   45 0.86430E-07-0.14358E+02 0.56851E+02
 -1   46-0.30000E+01-0.14358E+02 0.56851E+02
 -1   47 0.86430E-07-0.14525E+02 0.56750E+02
 -1   48-0.30000E+01-0.14525E+02 0.56750E+02
 -1   49 0.86430E-07-0.14571E+02 0.57397E+02
 -1   50-0.15000E+01-0.14358E+02 0.56851E+02
 -1   51-0.30000E+01-0.14571E+02 0.57397E+02
 -1   52-0.60000E+01-0.15777E+02 0.56045E+02
 -1   53-0.60000E+01-0.16898E+02 0.55880E+02
 -1   54-0.60000E+01-0.15347E+02 0.57025E+02
 -1   55-0.60000E+01-0.16054E+02 0.57458E+02
 -1   56-0.45000E+01-0.15777E+02 0.56045E+02
 -1   57-0.60000E+01-0.16338E+02 0.55962E+02
 -1   58-0.45000E+01-0.16898E+02 0.55880E+02
 -1   59-0.60000E+01-0.15581E+02 0.56536E+02
 -1   60-0.60000E+01-0.16476E+02 0.56669E+02
 -1   61-0.45000E+01-0.15347E+02 0.57025E+02
 -1   62-0.60000E+01-0.15701E+02 0.57242E+02
 -1   63-0.45000E+01-0.16054E+02 0.57458E+02
 -1   64-0.60000E+01-0.14657E+02 0.56210E+02
 -1   65-0.60000E+01-0.14640E+02 0.56592E+02
 -1   66-0.45000E+01-0.14657E+02 0.56210E+02
 -1   67-0.60000E+01-0.15217E+02 0.56127E+02
 -1   68-0.60000E+01-0.14687E+02 0.56403E+02
 -1   69-0.45000E+01-0.14640E+02 0.56592E+02
 -1   70-0.60000E+01-0.14994E+02 0.56809E+02
 -1   71-0.60000E+01-0.14784E+02 0.57944E+02
 -1   72-0.60000E+01-0.15210E+02 0.59036E+02
 -1   73-0.60000E+01-0.15079E+02 0.57498E+02
 -1   74-0.60000E+01-0.15632E+02 0.58247E+02
 -1   75-0.45000E+01-0.14784E+02 0.57944E+02
 -1   76-0.60000E+01-0.14997E+02 0.58490E+02
 -1   77-0.45000E+01-0.15210E+02 0.59036E+02
 -1   78-0.60000E+01-0.14358E+02 0.56851E+02
 -1   79-0.60000E+01-0.14525E+02 0.56750E+02
 -1   80-0.45000E+01-0.14358E+02 0.56851E+02
 -1   81-0.60000E+01-0.14571E+02 0.57397E+02
 -1   82 0.86430E-07-0.13493E+02 0.57844E+02
 -1   83 0.86430E-07-0.13734E+02 0.57339E+02
 -1   84-0.30000E+01-0.13734E+02 0.57339E+02
 -1   85-0.30000E+01-0.13493E+02 0.57844E+02
 -1   86 0.86430E-07-0.14351E+02 0.58440E+02
 -1   87 0.86430E-07-0.14258E+02 0.57660E+02
 -1   88-0.30000E+01-0.14258E+02 0.57660E+02
 -1   89-0.30000E+01-0.14351E+02 0.58440E+02
 -1   90 0.86430E-07-0.13614E+02 0.57592E+02
 -1   91-0.15000E+01-0.13734E+02 0.57339E+02
 -1   92-0.30000E+01-0.13614E+02 0.57592E+02
 -1   93-0.15000E+01-0.13493E+02 0.57844E+02
 -1   94 0.86430E-07-0.13976E+02 0.56834E+02
 -1   95-0.30000E+01-0.13976E+02 0.56834E+02
 -1   96 0.86430E-07-0.14165E+02 0.56881E+02
 -1   97-0.30000E+01-0.14165E+02 0.56881E+02
 -1   98 0.86430E-07-0.13855E+02 0.57087E+02
 -1   99-0.15000E+01-0.13976E+02 0.56834E+02
 -1  100-0.30000E+01-0.13855E+02 0.57087E+02
 -1  101 0.86430E-07-0.11775E+02 0.56652E+02
 -1  102 0.86430E-07-0.12746E+02 0.56602E+02
 -1  103-0.30000E+01-0.12746E+02 0.56602E+02
 -1  104-0.30000E+01-0.11775E+02 0.56652E+02
 -1  105 0.86430E-07-0.12634E+02 0.57248E+02
 -1  106 0.86430E-07-0.13226E+02 0.56983E+02
 -1  107-0.30000E+01-0.13226E+02 0.56983E+02
 -1  108-0.30000E+01-0.12634E+02 0.57248E+02
 -1  109 0.86430E-07-0.12261E+02 0.56627E+02
 -1  110-0.15000E+01-0.12746E+02 0.56602E+02
 -1  111-0.30000E+01-0.12261E+02 0.56627E+02
 -1  112-0.15000E+01-0.11775E+02 0.56652E+02
 -1  113 0.86430E-07-0.13717E+02 0.56552E+02
 -1  114-0.30000E+01-0.13717E+02 0.56552E+02
 -1  115 0.86430E-07-0.13819E+02 0.56719E+02
 -1  116-0.30000E+01-0.13819E+02 0.56719E+02
 -1  117 0.86430E-07-0.13232E+02 0.56577E+02
 -1  118-0.15000E+01-0.13717E+02 0.56552E+02
 -1  119-0.30000E+01-0.13232E+02 0.56577E+02
 -1  120-0.60000E+01-0.13734E+02 0.57339E+02
 -1  121-0.60000E+01-0.13493E+02 0.57844E+02
 -1  122-0.60000E+01-0.14258E+02 0.57660E+02
 -1  123-0.60000E+01-0.14351E+02 0.58440E+02
 -1  124-0.45000E+01-0.13734E+02 0.57339E+02
 -1  125-0.60000E+01-0.13614E+02 0.57592E+02
 -1  126-0.45000E+01-0.13493E+02 0.57844E+02
 -1  127-0.60000E+01-0.13976E+02 0.56834E+02
 -1  128-0.60000E+01-0.14165E+02 0.56881E+02
 -1  129-0.45000E+01-0.13976E+02 0.56834E+02
 -1  130-0.60000E+01-0.13855E+02 0.57087E+02
 -1  131-0.60000E+01-0.12746E+02 0.56602E+02
 -1  132-0.60000E+01-0.11775E+02 0.56652E+02
 -1  133-0.60000E+01-0.13226E+02 0.56983E+02
 -1  134-0.60000E+01-0.12634E+02 0.57248E+02
 -1  135-0.45000E+01-0.12746E+02 0.56602E+02
 -1  136-0.60000E+01-0.12261E+02 0.56627E+02
 -1  137-0.45000E+01-0.11775E+02 0.56652E+02
 -1  138-0.60000E+01-0.13717E+02 0.56552E+02
 -1  139-0.60000E+01-0.13819E+02 0.56719E+02
 -1  140-0.45000E+01-0.13717E+02 0.56552E+02
 -1  141-0.60000E+01-0.13232E+02 0.56577E+02
 -1  142 0.86430E-07-0.12582E+02 0.55448E+02
 -1  143 0.86430E-07-0.13158E+02 0.55809E+02
 -1  144-0.30000E+01-0.13158E+02 0.55809E+02
 -1  145-0.30000E+01-0.12582E+02 0.55448E+02
 -1  146 0.86430E-07-0.12179E+02 0.56050E+02
 -1  147 0.86430E-07-0.12933E+02 0.56205E+02
 -1  148-0.30000E+01-0.12933E+02 0.56205E+02
 -1  149-0.30000E+01-0.12179E+02 0.56050E+02
 -1  150 0.86430E-07-0.12870E+02 0.55628E+02
 -1  151-0.15000E+01-0.13158E+02 0.55809E+02
 -1  152-0.30000E+01-0.12870E+02 0.55628E+02
 -1  153-0.15000E+01-0.12582E+02 0.55448E+02
 -1  154 0.86430E-07-0.13734E+02 0.56170E+02
 -1  155-0.30000E+01-0.13734E+02 0.56170E+02
 -1  156 0.86430E-07-0.13688E+02 0.56359E+02
 -1  157-0.30000E+01-0.13688E+02 0.56359E+02
 -1  158 0.86430E-07-0.13446E+02 0.55989E+02
 -1  159-0.15000E+01-0.13734E+02 0.56170E+02
 -1  160-0.30000E+01-0.13446E+02 0.55989E+02
 -1  161 0.86430E-07-0.13389E+02 0.54243E+02
 -1  162 0.86430E-07-0.13703E+02 0.55077E+02
 -1  163-0.30000E+01-0.13703E+02 0.55077E+02
 -1  164-0.30000E+01-0.13389E+02 0.54243E+02
 -1  165 0.86430E-07-0.12986E+02 0.54846E+02
 -1  166 0.86430E-07-0.13418E+02 0.55429E+02
 -1  167-0.30000E+01-0.13418E+02 0.55429E+02
 -1  168-0.30000E+01-0.12986E+02 0.54846E+02
 -1  169 0.86430E-07-0.13546E+02 0.54660E+02
 -1  170-0.15000E+01-0.13703E+02 0.55077E+02
 -1  171-0.30000E+01-0.13546E+02 0.54660E+02
 -1  172-0.15000E+01-0.13389E+02 0.54243E+02
 -1  173 0.86430E-07-0.14016E+02 0.55911E+02
 -1  174-0.30000E+01-0.14016E+02 0.55911E+02
 -1  175 0.86430E-07-0.13850E+02 0.56012E+02
 -1  176-0.30000E+01-0.13850E+02 0.56012E+02
 -1  177 0.86430E-07-0.13859E+02 0.55494E+02
 -1  178-0.15000E+01-0.14016E+02 0.55911E+02
 -1  179-0.30000E+01-0.13859E+02 0.55494E+02
 -1  180-0.60000E+01-0.13158E+02 0.55809E+02
 -1  181-0.60000E+01-0.12582E+02 0.55448E+02
 -1  182-0.60000E+01-0.12933E+02 0.56205E+02
 -1  183-0.60000E+01-0.12179E+02 0.56050E+02
 -1  184-0.45000E+01-0.13158E+02 0.55809E+02
 -1  185-0.60000E+01-0.12870E+02 0.55628E+02
 -1  186-0.45000E+01-0.12582E+02 0.55448E+02
 -1  187-0.60000E+01-0.13734E+02 0.56170E+02
 -1  188-0.60000E+01-0.13688E+02 0.56359E+02
 -1  189-0.45000E+01-0.13734E+02 0.56170E+02
 -1  190-0.60000E+01-0.13446E+02 0.55989E+02
 -1  191-0.60000E+01-0.13703E+02 0.55077E+02
 -1  192-0.60000E+01-0.13389E+02 0.54243E+02
 -1  193-0.60000E+01-0.13418E+02 0.55429E+02
 -1  194-0.60000E+01-0.12986E+02 0.54846E+02
 -1  195-0.45000E+01-0.13703E+02 0.55077E+02
 -1  196-0.60000E+01-0.13546E+02 0.54660E+02
 -1  197-0.45000E+01-0.13389E+02 0.54243E+02
 -1  198-0.60000E+01-0.14016E+02 0.55911E+02
 -1  199-0.60000E+01-0.13850E+02 0.56012E+02
 -1  200-0.45000E+01-0.14016E+02 0.55911E+02
 -1  201-0.60000E+01-0.13859E+02 0.55494E+02
 -1  202 0.86430E-07-0.15143E+02 0.55062E+02
 -1  203 0.86430E-07-0.14771E+02 0.55495E+02
 -1  204-0.30000E+01-0.14771E+02 0.55495E+02
 -1  205-0.30000E+01-0.15143E+02 0.55062E+02
 -1  206 0.86430E-07-0.14266E+02 0.54652E+02
 -1  207 0.86430E-07-0.14238E+02 0.55267E+02
 -1  208-0.30000E+01-0.14238E+02 0.55267E+02
 -1  209-0.30000E+01-0.14266E+02 0.54652E+02
 -1  210 0.86430E-07-0.14957E+02 0.55278E+02
 -1  211-0.15000E+01-0.14771E+02 0.55495E+02
 -1  212-0.30000E+01-0.14957E+02 0.55278E+02
 -1  213-0.15000E+01-0.15143E+02 0.55062E+02
 -1  214 0.86430E-07-0.14399E+02 0.55928E+02
 -1  215-0.30000E+01-0.14399E+02 0.55928E+02
 -1  216 0.86430E-07-0.14209E+02 0.55882E+02
 -1  217-0.30000E+01-0.14209E+02 0.55882E+02
 -1  218 0.86430E-07-0.14585E+02 0.55711E+02
 -1  219-0.15000E+01-0.14399E+02 0.55928E+02
 -1  220-0.30000E+01-0.14585E+02 0.55711E+02
 -1  221 0.86430E-07-0.16021E+02 0.55471E+02
 -1  222 0.86430E-07-0.15288E+02 0.55757E+02
 -1  223-0.30000E+01-0.15288E+02 0.55757E+02
 -1  224-0.30000E+01-0.16021E+02 0.55471E+02
 -1  225 0.86430E-07-0.14556E+02 0.56043E+02
 -1  226-0.30000E+01-0.14556E+02 0.56043E+02
 -1  227-0.60000E+01-0.14771E+02 0.55495E+02
 -1  228-0.60000E+01-0.15143E+02 0.55062E+02
 -1  229-0.60000E+01-0.14238E+02 0.55267E+02
 -1  230-0.60000E+01-0.14266E+02 0.54652E+02
 -1  231-0.45000E+01-0.14771E+02 0.55495E+02
 -1  232-0.60000E+01-0.14957E+02 0.55278E+02
 -1  233-0.45000E+01-0.15143E+02 0.55062E+02
 -1  234-0.60000E+01-0.14399E+02 0.55928E+02
 -1  235-0.60000E+01-0.14209E+02 0.55882E+02
 -1  236-0.45000E+01-0.14399E+02 0.55928E+02
 -1  237-0.60000E+01-0.14585E+02 0.55711E+02
 -1  238-0.60000E+01-0.15288E+02 0.55757E+02
 -1  239-0.60000E+01-0.16021E+02 0.55471E+02
 -1  240-0.60000E+01-0.14556E+02 0.56043E+02
 -1  241 0.86430E-07-0.10711E+02 0.52995E+02
 -1  242-0.30000E+01-0.10711E+02 0.52995E+02
 -1  243 0.86430E-07-0.10049E+02 0.53995E+02
 -1  244-0.30000E+01-0.10049E+02 0.53995E+02
 -1  245 0.86430E-07-0.12050E+02 0.53619E+02
 -1  246-0.15000E+01-0.10711E+02 0.52995E+02
 -1  247-0.30000E+01-0.12050E+02 0.53619E+02
 -1  248 0.86430E-07-0.10380E+02 0.53495E+02
 -1  249-0.30000E+01-0.10380E+02 0.53495E+02
 -1  250 0.86430E-07-0.11315E+02 0.54721E+02
 -1  251-0.15000E+01-0.10049E+02 0.53995E+02
 -1  252-0.30000E+01-0.11315E+02 0.54721E+02
 -1  253 0.86430E-07-0.80334E+01 0.51746E+02
 -1  254-0.30000E+01-0.80334E+01 0.51746E+02
 -1  255 0.86430E-07-0.75154E+01 0.52541E+02
 -1  256-0.30000E+01-0.75154E+01 0.52541E+02
 -1  257 0.86430E-07-0.93723E+01 0.52370E+02
 -1  258-0.15000E+01-0.80334E+01 0.51746E+02
 -1  259-0.30000E+01-0.93723E+01 0.52370E+02
 -1  260 0.86430E-07-0.77744E+01 0.52144E+02
 -1  261-0.30000E+01-0.77744E+01 0.52144E+02
 -1  262 0.86430E-07-0.87821E+01 0.53268E+02
 -1  263-0.15000E+01-0.75154E+01 0.52541E+02
 -1  264-0.30000E+01-0.87821E+01 0.53268E+02
 -1  265 0.86430E-07-0.53556E+01 0.50497E+02
 -1  266-0.30000E+01-0.53556E+01 0.50497E+02
 -1  267 0.86430E-07-0.49821E+01 0.51088E+02
 -1  268-0.30000E+01-0.49821E+01 0.51088E+02
 -1  269 0.86430E-07-0.66945E+01 0.51122E+02
 -1  270-0.15000E+01-0.53556E+01 0.50497E+02
 -1  271-0.30000E+01-0.66945E+01 0.51122E+02
 -1  272 0.86430E-07-0.51688E+01 0.50793E+02
 -1  273-0.30000E+01-0.51688E+01 0.50793E+02
 -1  274 0.86430E-07-0.62488E+01 0.51815E+02
 -1  275-0.15000E+01-0.49821E+01 0.51088E+02
 -1  276-0.30000E+01-0.62488E+01 0.51815E+02
 -1  277 0.86430E-07-0.26778E+01 0.49249E+02
 -1  278-0.30000E+01-0.26778E+01 0.49249E+02
 -1  279 0.86430E-07-0.24488E+01 0.49635E+02
 -1  280-0.30000E+01-0.24488E+01 0.49635E+02
 -1  281 0.86430E-07-0.40167E+01 0.49873E+02
 -1  282-0.15000E+01-0.26778E+01 0.49249E+02
 -1  283-0.30000E+01-0.40167E+01 0.49873E+02
 -1  284 0.86430E-07-0.25633E+01 0.49442E+02
 -1  285-0.30000E+01-0.25633E+01 0.49442E+02
 -1  286 0.86430E-07-0.37155E+01 0.50361E+02
 -1  287-0.15000E+01-0.24488E+01 0.49635E+02
 -1  288-0.30000E+01-0.37155E+01 0.50361E+02
 -1  289 0.86430E-07 0.44225E-06 0.48000E+02
 -1  290-0.30000E+01 0.44225E-06 0.48000E+02
 -1  291 0.86430E-07 0.84526E-01 0.48181E+02
 -1  292-0.30000E+01 0.84526E-01 0.48181E+02
 -1  293 0.86430E-07-0.13389E+01 0.48624E+02
 -1  294-0.15000E+01 0.44225E-06 0.48000E+02
 -1  295-0.30000E+01-0.13389E+01 0.48624E+02
 -1  296 0.86430E-07 0.42263E-01 0.48091E+02
 -1  297-0.30000E+01 0.42263E-01 0.48091E+02
 -1  298 0.86430E-07-0.11821E+01 0.48908E+02
 -1  299-0.15000E+01 0.84526E-01 0.48181E+02
 -1  300-0.30000E+01-0.11821E+01 0.48908E+02
 -1  301 0.86430E-07-0.93863E+01 0.54994E+02
 -1  302-0.30000E+01-0.93863E+01 0.54994E+02
 -1  303 0.86430E-07-0.97175E+01 0.54494E+02
 -1  304-0.30000E+01-0.97175E+01 0.54494E+02
 -1  305 0.86430E-07-0.10581E+02 0.55823E+02
 -1  306-0.15000E+01-0.93863E+01 0.54994E+02
 -1  307-0.30000E+01-0.10581E+02 0.55823E+02
 -1  308 0.86430E-07-0.69974E+01 0.53336E+02
 -1  309-0.30000E+01-0.69974E+01 0.53336E+02
 -1  310 0.86430E-07-0.72564E+01 0.52939E+02
 -1  311-0.30000E+01-0.72564E+01 0.52939E+02
 -1  312 0.86430E-07-0.81919E+01 0.54165E+02
 -1  313-0.15000E+01-0.69974E+01 0.53336E+02
 -1  314-0.30000E+01-0.81919E+01 0.54165E+02
 -1  315 0.86430E-07-0.46086E+01 0.51678E+02
 -1  316-0.30000E+01-0.46086E+01 0.51678E+02
 -1  317 0.86430E-07-0.47954E+01 0.51383E+02
 -1  318-0.30000E+01-0.47954E+01 0.51383E+02
 -1  319 0.86430E-07-0.58030E+01 0.52507E+02
 -1  320-0.15000E+01-0.46086E+01 0.51678E+02
 -1  321-0.30000E+01-0.58030E+01 0.52507E+02
 -1  322 0.86430E-07-0.22198E+01 0.50020E+02
 -1  323-0.30000E+01-0.22198E+01 0.50020E+02
 -1  324 0.86430E-07-0.23343E+01 0.49828E+02
 -1  325-0.30000E+01-0.23343E+01 0.49828E+02
 -1  326 0.86430E-07-0.34142E+01 0.50849E+02
 -1  327-0.15000E+01-0.22198E+01 0.50020E+02
 -1  328-0.30000E+01-0.34142E+01 0.50849E+02
 -1  329 0.86430E-07 0.16905E+00 0.48362E+02
 -1  330-0.30000E+01 0.16905E+00 0.48362E+02
 -1  331 0.86430E-07 0.12679E+00 0.48272E+02
 -1  332-0.30000E+01 0.12679E+00 0.48272E+02
 -1  333 0.86430E-07-0.10254E+01 0.49191E+02
 -1  334-0.15000E+01 0.16905E+00 0.48362E+02
 -1  335-0.30000E+01-0.10254E+01 0.49191E+02
 -1  336-0.60000E+01-0.10711E+02 0.52995E+02
 -1  337-0.60000E+01-0.10049E+02 0.53995E+02
 -1  338-0.45000E+01-0.10711E+02 0.52995E+02
 -1  339-0.60000E+01-0.12050E+02 0.53619E+02
 -1  340-0.60000E+01-0.10380E+02 0.53495E+02
 -1  341-0.45000E+01-0.10049E+02 0.53995E+02
 -1  342-0.60000E+01-0.11315E+02 0.54721E+02
 -1  343-0.60000E+01-0.80334E+01 0.51746E+02
 -1  344-0.60000E+01-0.75154E+01 0.52541E+02
 -1  345-0.45000E+01-0.80334E+01 0.51746E+02
 -1  346-0.60000E+01-0.93723E+01 0.52370E+02
 -1  347-0.60000E+01-0.77744E+01 0.52144E+02
 -1  348-0.45000E+01-0.75154E+01 0.52541E+02
 -1  349-0.60000E+01-0.87821E+01 0.53268E+02
 -1  350-0.60000E+01-0.53556E+01 0.50497E+02
 -1  351-0.60000E+01-0.49821E+01 0.51088E+02
 -1  352-0.45000E+01-0.53556E+01 0.50497E+02
 -1  353-0.60000E+01-0.66945E+01 0.51122E+02
 -1  354-0.60000E+01-0.51688E+01 0.50793E+02
 -1  355-0.45000E+01-0.49821E+01 0.51088E+02
 -1  356-0.60000E+01-0.62488E+01 0.51815E+02
 -1  357-0.60000E+01-0.26778E+01 0.49249E+02
 -1  358-0.60000E+01-0.24488E+01 0.49635E+02
 -1  359-0.45000E+01-0.26778E+01 0.49249E+02
 -1  360-0.60000E+01-0.40167E+01 0.49873E+02
 -1  361-0.60000E+01-0.25633E+01 0.49442E+02
 -1  362-0.45000E+01-0.24488E+01 0.49635E+02
 -1  363-0.60000E+01-0.37155E+01 0.50361E+02
 -1  364-0.60000E+01 0.44225E-06 0.48000E+02
 -1  365-0.60000E+01 0.84526E-01 0.48181E+02
 -1  366-0.45000E+01 0.44225E-06 0.48000E+02
 -1  367-0.60000E+01-0.13389E+01 0.48624E+02
 -1  368-0.60000E+01 0.42263E-01 0.48091E+02
 -1  369-0.45000E+01 0.84526E-01 0.48181E+02
 -1  370-0.60000E+01-0.11821E+01 0.48908E+02
 -1  371-0.60000E+01-0.93863E+01 0.54994E+02
 -1  372-0.60000E+01-0.97175E+01 0.54494E+02
 -1  373-0.45000E+01-0.93863E+01 0.54994E+02
 -1  374-0.60000E+01-0.10581E+02 0.55823E+02
 -1  375-0.60000E+01-0.69974E+01 0.53336E+02
 -1  376-0.60000E+01-0.72564E+01 0.52939E+02
 -1  377-0.45000E+01-0.69974E+01 0.53336E+02
 -1  378-0.60000E+01-0.81919E+01 0.54165E+02
 -1  379-0.60000E+01-0.46086E+01 0.51678E+02
 -1  380-0.60000E+01-0.47954E+01 0.51383E+02
 -1  381-0.45000E+01-0.46086E+01 0.51678E+02
 -1  382-0.60000E+01-0.58030E+01 0.52507E+02
 -1  383-0.60000E+01-0.22198E+01 0.50020E+02
 -1  384-0.60000E+01-0.23343E+01 0.49828E+02
 -1  385-0.45000E+01-0.22198E+01 0.50020E+02
 -1  386-0.60000E+01-0.34142E+01 0.50849E+02
 -1  387-0.60000E+01 0.16905E+00 0.48362E+02
 -1  388-0.60000E+01 0.12679E+00 0.48272E+02
 -1  389-0.45000E+01 0.16905E+00 0.48362E+02
 -1  390-0.60000E+01-0.10254E+01 0.49191E+02
 -1  391 0.86430E-07-0.18336E+02 0.61206E+02
 -1  392-0.30000E+01-0.18336E+02 0.61206E+02
 -1  393 0.86430E-07-0.20020E+02 0.59663E+02
 -1  394-0.30000E+01-0.20020E+02 0.59663E+02
 -1  395 0.86430E-07-0.16773E+02 0.60121E+02
 -1  396-0.15000E+01-0.18336E+02 0.61206E+02
 -1  397-0.30000E+01-0.16773E+02 0.60121E+02
 -1  398 0.86430E-07-0.19178E+02 0.60435E+02
 -1  399-0.30000E+01-0.19178E+02 0.60435E+02
 -1  400 0.86430E-07-0.18037E+02 0.58561E+02
 -1  401-0.15000E+01-0.20020E+02 0.59663E+02
 -1  402-0.30000E+01-0.18037E+02 0.58561E+02
 -1  403 0.86430E-07-0.21462E+02 0.63375E+02
 -1  404-0.30000E+01-0.21462E+02 0.63375E+02
 -1  405 0.86430E-07-0.23987E+02 0.61869E+02
 -1  406-0.30000E+01-0.23987E+02 0.61869E+02
 -1  407 0.86430E-07-0.19899E+02 0.62291E+02
 -1  408-0.15000E+01-0.21462E+02 0.63375E+02
 -1  409-0.30000E+01-0.19899E+02 0.62291E+02
 -1  410 0.86430E-07-0.22725E+02 0.62622E+02
 -1  411-0.30000E+01-0.22725E+02 0.62622E+02
 -1  412 0.86430E-07-0.22003E+02 0.60766E+02
 -1  413-0.15000E+01-0.23987E+02 0.61869E+02
 -1  414-0.30000E+01-0.22003E+02 0.60766E+02
 -1  415 0.86430E-07-0.24589E+02 0.65545E+02
 -1  416-0.30000E+01-0.24589E+02 0.65545E+02
 -1  417 0.86430E-07-0.27953E+02 0.64074E+02
 -1  418-0.30000E+01-0.27953E+02 0.64074E+02
 -1  419 0.86430E-07-0.23026E+02 0.64460E+02
 -1  420-0.15000E+01-0.24589E+02 0.65545E+02
 -1  421-0.30000E+01-0.23026E+02 0.64460E+02
 -1  422 0.86430E-07-0.26271E+02 0.64810E+02
 -1  423-0.30000E+01-0.26271E+02 0.64810E+02
 -1  424 0.86430E-07-0.25970E+02 0.62972E+02
 -1  425-0.15000E+01-0.27953E+02 0.64074E+02
 -1  426-0.30000E+01-0.25970E+02 0.62972E+02
 -1  427 0.86430E-07-0.27715E+02 0.67715E+02
 -1  428-0.30000E+01-0.27715E+02 0.67715E+02
 -1  429 0.86430E-07-0.31919E+02 0.66280E+02
 -1  430-0.30000E+01-0.31919E+02 0.66280E+02
 -1  431 0.86430E-07-0.26152E+02 0.66630E+02
 -1  432-0.15000E+01-0.27715E+02 0.67715E+02
 -1  433-0.30000E+01-0.26152E+02 0.66630E+02
 -1  434 0.86430E-07-0.29817E+02 0.66997E+02
 -1  435-0.30000E+01-0.29817E+02 0.66997E+02
 -1  436 0.86430E-07-0.29936E+02 0.65177E+02
 -1  437-0.15000E+01-0.31919E+02 0.66280E+02
 -1  438-0.30000E+01-0.29936E+02 0.65177E+02
 -1  439 0.86430E-07-0.30841E+02 0.69884E+02
 -1  440-0.30000E+01-0.30841E+02 0.69884E+02
 -1  441 0.86430E-07-0.35886E+02 0.68485E+02
 -1  442-0.30000E+01-0.35886E+02 0.68485E+02
 -1  443 0.86430E-07-0.29278E+02 0.68799E+02
 -1  444-0.15000E+01-0.30841E+02 0.69884E+02
 -1  445-0.30000E+01-0.29278E+02 0.68799E+02
 -1  446 0.86430E-07-0.33363E+02 0.69185E+02
 -1  447-0.30000E+01-0.33363E+02 0.69185E+02
 -1  448 0.86430E-07-0.33903E+02 0.67382E+02
 -1  449-0.15000E+01-0.35886E+02 0.68485E+02
 -1  450-0.30000E+01-0.33903E+02 0.67382E+02
 -1  451 0.86430E-07-0.21704E+02 0.58121E+02
 -1  452-0.30000E+01-0.21704E+02 0.58121E+02
 -1  453 0.86430E-07-0.20862E+02 0.58892E+02
 -1  454-0.30000E+01-0.20862E+02 0.58892E+02
 -1  455 0.86430E-07-0.19301E+02 0.57000E+02
 -1  456-0.15000E+01-0.21704E+02 0.58121E+02
 -1  457-0.30000E+01-0.19301E+02 0.57000E+02
 -1  458 0.86430E-07-0.26511E+02 0.60362E+02
 -1  459-0.30000E+01-0.26511E+02 0.60362E+02
 -1  460 0.86430E-07-0.25249E+02 0.61115E+02
 -1  461-0.30000E+01-0.25249E+02 0.61115E+02
 -1  462 0.86430E-07-0.24108E+02 0.59242E+02
 -1  463-0.15000E+01-0.26511E+02 0.60362E+02
 -1  464-0.30000E+01-0.24108E+02 0.59242E+02
 -1  465 0.86430E-07-0.31317E+02 0.62604E+02
 -1  466-0.30000E+01-0.31317E+02 0.62604E+02
 -1  467 0.86430E-07-0.29635E+02 0.63339E+02
 -1  468-0.30000E+01-0.29635E+02 0.63339E+02
 -1  469 0.86430E-07-0.28914E+02 0.61483E+02
 -1  470-0.15000E+01-0.31317E+02 0.62604E+02
 -1  471-0.30000E+01-0.28914E+02 0.61483E+02
 -1  472 0.86430E-07-0.36124E+02 0.64845E+02
 -1  473-0.30000E+01-0.36124E+02 0.64845E+02
 -1  474 0.86430E-07-0.34022E+02 0.65562E+02
 -1  475-0.30000E+01-0.34022E+02 0.65562E+02
 -1  476 0.86430E-07-0.33721E+02 0.63724E+02
 -1  477-0.15000E+01-0.36124E+02 0.64845E+02
 -1  478-0.30000E+01-0.33721E+02 0.63724E+02
 -1  479 0.86430E-07-0.40931E+02 0.67086E+02
 -1  480-0.30000E+01-0.40931E+02 0.67086E+02
 -1  481 0.86430E-07-0.38408E+02 0.67786E+02
 -1  482-0.30000E+01-0.38408E+02 0.67786E+02
 -1  483 0.86430E-07-0.38527E+02 0.65966E+02
 -1  484-0.15000E+01-0.40931E+02 0.67086E+02
 -1  485-0.30000E+01-0.38527E+02 0.65966E+02
 -1  486-0.60000E+01-0.18336E+02 0.61206E+02
 -1  487-0.60000E+01-0.20020E+02 0.59663E+02
 -1  488-0.45000E+01-0.18336E+02 0.61206E+02
 -1  489-0.60000E+01-0.16773E+02 0.60121E+02
 -1  490-0.60000E+01-0.19178E+02 0.60435E+02
 -1  491-0.45000E+01-0.20020E+02 0.59663E+02
 -1  492-0.60000E+01-0.18037E+02 0.58561E+02
 -1  493-0.60000E+01-0.21462E+02 0.63375E+02
 -1  494-0.60000E+01-0.23987E+02 0.61869E+02
 -1  495-0.45000E+01-0.21462E+02 0.63375E+02
 -1  496-0.60000E+01-0.19899E+02 0.62291E+02
 -1  497-0.60000E+01-0.22725E+02 0.62622E+02
 -1  498-0.45000E+01-0.23987E+02 0.61869E+02
 -1  499-0.60000E+01-0.22003E+02 0.60766E+02
 -1  500-0.60000E+01-0.24589E+02 0.65545E+02
 -1  501-0.60000E+01-0.27953E+02 0.64074E+02
 -1  502-0.45000E+01-0.24589E+02 0.65545E+02
 -1  503-0.60000E+01-0.23026E+02 0.64460E+02
 -1  504-0.60000E+01-0.26271E+02 0.64810E+02
 -1  505-0.45000E+01-0.27953E+02 0.64074E+02
 -1  506-0.60000E+01-0.25970E+02 0.62972E+02
 -1  507-0.60000E+01-0.27715E+02 0.67715E+02
 -1  508-0.60000E+01-0.31919E+02 0.66280E+02
 -1  509-0.45000E+01-0.27715E+02 0.67715E+02
 -1  510-0.60000E+01-0.26152E+02 0.66630E+02
 -1  511-0.60000E+01-0.29817E+02 0.66997E+02
 -1  512-0.45000E+01-0.31919E+02 0.66280E+02
 -1  513-0.60000E+01-0.29936E+02 0.65177E+02
 -1  514-0.60000E+01-0.30841E+02 0.69884E+02
 -1  515-0.60000E+01-0.35886E+02 0.68485E+02
 -1  516-0.45000E+01-0.30841E+02 0.69884E+02
 -1  517-0.60000E+01-0.29278E+02 0.68799E+02
 -1  518-0.60000E+01-0.33363E+02 0.69185E+02
 -1  519-0.45000E+01-0.35886E+02 0.68485E+02
 -1  520-0.60000E+01-0.33903E+02 0.67382E+02
 -1  521-0.60000E+01-0.21704E+02 0.58121E+02
 -1  522-0.60000E+01-0.20862E+02 0.58892E+02
 -1  523-0.45000E+01-0.21704E+02 0.58121E+02
 -1  524-0.60000E+01-0.19301E+02 0.57000E+02
 -1  525-0.60000E+01-0.26511E+02 0.60362E+02
 -1  526-0.60000E+01-0.25249E+02 0.61115E+02
 -1  527-0.45000E+01-0.26511E+02 0.60362E+02
 -1  528-0.60000E+01-0.24108E+02 0.59242E+02
 -1  529-0.60000E+01-0.31317E+02 0.62604E+02
 -1  530-0.60000E+01-0.29635E+02 0.63339E+02
 -1  531-0.45000E+01-0.31317E+02 0.62604E+02
 -1  532-0.60000E+01-0.28914E+02 0.61483E+02
 -1  533-0.60000E+01-0.36124E+02 0.64845E+02
 -1  534-0.60000E+01-0.34022E+02 0.65562E+02
 -1  535-0.45000E+01-0.36124E+02 0.64845E+02
 -1  536-0.60000E+01-0.33721E+02 0.63724E+02
 -1  537-0.60000E+01-0.40931E+02 0.67086E+02
 -1  538-0.60000E+01-0.38408E+02 0.67786E+02
 -1  539-0.45000E+01-0.40931E+02 0.67086E+02
 -1  540-0.60000E+01-0.38527E+02 0.65966E+02
 -3
    3C
 -1    1    4    0    0
 -2    1    2    3    4    5    6    7    8    9   10   11   12   13   14   15
 -2   16   17   18   19   20
 -1    2    4    0    0
 -2    2   21   22    3    6   23   24    7   25   26   27   10   14   28   29
 -2   15   30   31   32   18
 -1    3    4    0    0
 -2    5    6    7    8   33   34   35   36   17   18   19   20   37   38   39
 -2   40   41   42   43   44
 -1    4    4    0    0
 -2    6   23   24    7   34   45   46   35   30   31   32   18   38   47   48
 -2   39   49   50   51   42
 -1    5    4    0    0
 -2    4    3   52   53    8    7   54   55   11   56   57   58   16   15   59
 -2   60   19   61   62   63
 -1    6    4    0    0
 -2    3   22   64   52    7   24   65   54   27   66   67   56   15   29   68
 -2   59   32   69   70   61
 -1    7    4    0    0
 -2    8    7   54   55   36   35   71   72   19   61   62   63   40   39   73
 -2   74   43   75   76   77
 -1    8    4    0    0
 -2    7   24   65   54   35   46   78   71   32   69   70   61   39   48   79
 -2   73   51   80   81   75
 -1    9    4    0    0
 -2   33   34   35   36   82   83   84   85   41   42   43   44   86   87   88
 -2   89   90   91   92   93
 -1   10    4    0    0
 -2   34   45   46   35   83   94   95   84   49   50   51   42   87   96   97
 -2   88   98   99  100   91
 -1   11    4    0    0
 -2   82   83   84   85  101  102  103  104   90   91   92   93  105  106  107
 -2  108  109  110  111  112
 -1   12    4    0    0
 -2   83   94   95   84  102  113  114  103   98   99  100   91  106  115  116
 -2  107  117  118  119  110
 -1   13    4    0    0
 -2   36   35   71   72   85   84  120  121   43   75   76   77   89   88  122
 -2  123   92  124  125  126
 -1   14    4    0    0
 -2   35   46   78   71   84   95  127  120   51   80   81   75   88   97  128
 -2  122  100  129  130  124
 -1   15    4    0    0
 -2   85   84  120  121  104  103  131  132   92  124  125  126  108  107  133
 -2  134  111  135  136  137
 -1   16    4    0    0
 -2   84   95  127  120  103  114  138  131  100  129  130  124  107  116  139
 -2  133  119  140  141  135
 -1   17    4    0    0
 -2  101  102  103  104  142  143  144  145  109  110  111  112  146  147  148
 -2  149  150  151  152  153
 -1   18    4    0    0
 -2  102  113  114  103  143  154  155  144  117  118  119  110  147  156  157
 -2  148  158  159  160  151
 -1   19    4    0    0
 -2  142  143  144  145  161  162  163  164  150  151  152  153  165  166  167
 -2  168  169  170  171  172
 -1   20    4    0    0
 -2  143  154  155  144  162  173  174  163  158  159  160  151  166  175  176
 -2  167  177  178  179  170
 -1   21    4    0    0
 -2  104  103  131  132  145  144  180  181  111  135  136  137  149  148  182
 -2  183  152  184  185  186
 -1   22    4    0    0
 -2  103  114  138  131  144  155  187  180  119  140  141  135  148  157  188
 -2  182  160  189  190  184
 -1   23    4    0    0
 -2  145  144  180  181  164  163  191  192  152  184  185  186  168  167  193
 -2  194  171  195  196  197
 -1   24    4    0    0
 -2  144  155  187  180  163  174  198  191  160  189  190  184  167  176  199
 -2  193  179  200  201  195
 -1   25    4    0    0
 -2  161  162  163  164  202  203  204  205  169  170  171  172  206  207  208
 -2  209  210  211  212  213
 -1   26    4    0    0
 -2  162  173  174  163  203  214  215  204  177  178  179  170  207  216  217
 -2  208  218  219  220  211
 -1   27    4    0    0
 -2  202  203  204  205    1    2    3    4  210  211  212  213  221  222  223
 -2  224    9   10   11   12
 -1   28    4    0    0
 -2  203  214  215  204    2   21   22    3  218  219  220  211  222  225  226
 -2  223   25   26   27   10
 -1   29    4    0    0
 -2  164  163  191  192  205  204  227  228  171  195  196  197  209  208  229
 -2  230  212  231  232  233
 -1   30    4    0    0
 -2  163  174  198  191  204  215  234  227  179  200  201  195  208  217  235
 -2  229  220  236  237  231
 -1   31    4    0    0
 -2  205  204  227  228    4    3   52   53  212  231  232  233  224  223  238
 -2  239   11   56   57   58
 -1   32    4    0    0
 -2  204  215  234  227    3   22   64   52  220  236  237  231  223  226  240
 -2  238   27   66   67   56
 -1   33    4    0    0
 -2  161  241  242  164  142  243  244  145  245  246  247  172  165  248  249
 -2  168  250  251  252  153
 -1   34    4    0    0
 -2  241  253  254  242  243  255  256  244  257  258  259  246  248  260  261
 -2  249  262  263  264  251
 -1   35    4    0    0
 -2  253  265  266  254  255  267  268  256  269  270  271  258  260  272  273
 -2  261  274  275  276  263
 -1   36    4    0    0
 -2  265  277  278  266  267  279  280  268  281  282  283  270  272  284  285
 -2  273  286  287  288  275
 -1   37    4    0    0
 -2  277  289  290  278  279  291  292  280  293  294  295  282  284  296  297
 -2  285  298  299  300  287
 -1   38    4    0    0
 -2  142  243  244  145  101  301  302  104  250  251  252  153  146  303  304
 -2  149  305  306  307  112
 -1   39    4    0    0
 -2  243  255  256  244  301  308  309  302  262  263  264  251  303  310  311
 -2  304  312  313  314  306
 -1   40    4    0    0
 -2  255  267  268  256  308  315  316  309  274  275  276  263  310  317  318
 -2  311  319  320  321  313
 -1   41    4    0    0
 -2  267  279  280  268  315  322  323  316  286  287  288  275  317  324  325
 -2  318  326  327  328  320
 -1   42    4    0    0
 -2  279  291  292  280  322  329  330  323  298  299  300  287  324  331  332
 -2  325  333  334  335  327
 -1   43    4    0    0
 -2  164  242  336  192  145  244  337  181  247  338  339  197  168  249  340